<?xml version="1.0" encoding="UTF-8"?>

<!-- generated on 2023-05-24 10:57:49 by Eclipse SUMO GUI Version 1.16.0
<configuration xmlns:xsi="http://www.w3.org/2001/XMLSchema-instance" xsi:noNamespaceSchemaLocation="http://sumo.dlr.de/xsd/sumoConfiguration.xsd">

    <input>
        <net-file value="../../My%20task/4_way_final/4_way.net.xml"/>
        <route-files value="../../My%20task/4_way_final/4_way.rou.xml"/>
    </input>

    <output>
        <tripinfo-output value="tripinfo.xml"/>
    </output>

    <traci_server>
        <remote-port value="57801"/>
    </traci_server>

</configuration>
-->

<tripinfos xmlns:xsi="http://www.w3.org/2001/XMLSchema-instance" xsi:noNamespaceSchemaLocation="http://sumo.dlr.de/xsd/tripinfo_file.xsd">
    <tripinfo id="N_E_flow.0" depart="0.00" departLane="E4_0" departPos="5.10" departSpeed="0.00" departDelay="0.00" arrival="94.00" arrivalLane="E1_0" arrivalPos="286.40" arrivalSpeed="5.78" duration="94.00" routeLength="576.73" waitingTime="0.00" waitingCount="0" stopTime="0.00" timeLoss="21.24" rerouteNo="0" devices="tripinfo_N_E_flow.0 routing_N_E_flow.0" vType="car" speedFactor="1.06" vaporized=""/>
    <tripinfo id="N_E_flow.1" depart="3.00" departLane="E4_0" departPos="5.10" departSpeed="0.00" departDelay="3.00" arrival="99.00" arrivalLane="E1_0" arrivalPos="286.40" arrivalSpeed="4.57" duration="96.00" routeLength="576.73" waitingTime="0.00" waitingCount="0" stopTime="0.00" timeLoss="23.17" rerouteNo="0" devices="tripinfo_N_E_flow.1 routing_N_E_flow.1" vType="car" speedFactor="0.94" vaporized=""/>
    <tripinfo id="N_E_flow.3" depart="9.00" departLane="E4_0" departPos="5.10" departSpeed="0.00" departDelay="9.00" arrival="102.00" arrivalLane="E1_0" arrivalPos="286.40" arrivalSpeed="7.67" duration="93.00" routeLength="576.73" waitingTime="0.00" waitingCount="0" stopTime="0.00" timeLoss="20.41" rerouteNo="0" devices="tripinfo_N_E_flow.3 routing_N_E_flow.3" vType="car" speedFactor="1.08" vaporized=""/>
    <tripinfo id="N_E_flow.2" depart="6.00" departLane="E4_0" departPos="5.10" departSpeed="0.00" departDelay="6.00" arrival="107.00" arrivalLane="E1_0" arrivalPos="286.40" arrivalSpeed="5.86" duration="101.00" routeLength="576.73" waitingTime="0.00" waitingCount="0" stopTime="0.00" timeLoss="28.44" rerouteNo="0" devices="tripinfo_N_E_flow.2 routing_N_E_flow.2" vType="car" speedFactor="1.01" vaporized=""/>
    <tripinfo id="N_E_flow.4" depart="10.00" departLane="E4_0" departPos="5.10" departSpeed="0.00" departDelay="10.00" arrival="110.00" arrivalLane="E1_1" arrivalPos="286.40" arrivalSpeed="7.05" duration="100.00" routeLength="576.73" waitingTime="0.00" waitingCount="0" stopTime="0.00" timeLoss="27.59" rerouteNo="0" devices="tripinfo_N_E_flow.4 routing_N_E_flow.4" vType="car" speedFactor="1.03" vaporized=""/>
    <tripinfo id="N_E_flow.5" depart="14.00" departLane="E4_0" departPos="5.10" departSpeed="0.00" departDelay="14.00" arrival="114.00" arrivalLane="E1_0" arrivalPos="286.40" arrivalSpeed="5.58" duration="100.00" routeLength="576.73" waitingTime="0.00" waitingCount="0" stopTime="0.00" timeLoss="26.94" rerouteNo="0" devices="tripinfo_N_E_flow.5 routing_N_E_flow.5" vType="car" speedFactor="0.83" vaporized=""/>
    <tripinfo id="N_E_flow.6" depart="18.00" departLane="E4_0" departPos="5.10" departSpeed="0.00" departDelay="18.00" arrival="116.00" arrivalLane="E1_0" arrivalPos="286.40" arrivalSpeed="7.68" duration="98.00" routeLength="576.73" waitingTime="0.00" waitingCount="0" stopTime="0.00" timeLoss="25.25" rerouteNo="0" devices="tripinfo_N_E_flow.6 routing_N_E_flow.6" vType="car" speedFactor="1.05" vaporized=""/>
    <tripinfo id="N_E_flow.7" depart="22.00" departLane="E4_0" departPos="5.10" departSpeed="0.00" departDelay="22.00" arrival="121.00" arrivalLane="E1_0" arrivalPos="286.40" arrivalSpeed="5.27" duration="99.00" routeLength="576.73" waitingTime="1.00" waitingCount="1" stopTime="0.00" timeLoss="26.27" rerouteNo="0" devices="tripinfo_N_E_flow.7 routing_N_E_flow.7" vType="car" speedFactor="0.89" vaporized=""/>
    <tripinfo id="N_E_flow.10" depart="31.00" departLane="E4_0" departPos="5.10" departSpeed="0.00" departDelay="31.00" arrival="125.00" arrivalLane="E1_1" arrivalPos="286.40" arrivalSpeed="4.73" duration="94.00" routeLength="576.73" waitingTime="0.00" waitingCount="0" stopTime="0.00" timeLoss="21.31" rerouteNo="0" devices="tripinfo_N_E_flow.10 routing_N_E_flow.10" vType="car" speedFactor="1.09" vaporized=""/>
    <tripinfo id="N_E_flow.8" depart="25.00" departLane="E4_0" departPos="5.10" departSpeed="0.00" departDelay="25.00" arrival="138.00" arrivalLane="E1_0" arrivalPos="286.40" arrivalSpeed="6.23" duration="113.00" routeLength="576.73" waitingTime="7.00" waitingCount="1" stopTime="0.00" timeLoss="40.21" rerouteNo="0" devices="tripinfo_N_E_flow.8 routing_N_E_flow.8" vType="car" speedFactor="0.94" vaporized=""/>
    <tripinfo id="S_N_flow.0" depart="0.00" departLane="-E3_0" departPos="5.10" departSpeed="0.00" departDelay="0.00" arrival="141.00" arrivalLane="-E4_0" arrivalPos="286.40" arrivalSpeed="6.39" duration="141.00" routeLength="594.90" waitingTime="38.00" waitingCount="2" stopTime="0.00" timeLoss="66.29" rerouteNo="0" devices="tripinfo_S_N_flow.0 routing_S_N_flow.0" vType="car" speedFactor="1.14" vaporized=""/>
    <tripinfo id="N_E_flow.14" depart="41.00" departLane="E4_0" departPos="5.10" departSpeed="0.00" departDelay="41.00" arrival="145.00" arrivalLane="E1_1" arrivalPos="286.40" arrivalSpeed="6.14" duration="104.00" routeLength="576.73" waitingTime="4.00" waitingCount="2" stopTime="0.00" timeLoss="31.80" rerouteNo="0" devices="tripinfo_N_E_flow.14 routing_N_E_flow.14" vType="car" speedFactor="0.99" vaporized=""/>
    <tripinfo id="S_N_flow.1" depart="3.00" departLane="-E3_0" departPos="5.10" departSpeed="0.00" departDelay="3.00" arrival="145.00" arrivalLane="-E4_0" arrivalPos="286.40" arrivalSpeed="6.61" duration="142.00" routeLength="594.90" waitingTime="36.00" waitingCount="1" stopTime="0.00" timeLoss="67.48" rerouteNo="0" devices="tripinfo_S_N_flow.1 routing_S_N_flow.1" vType="car" speedFactor="1.11" vaporized=""/>
    <tripinfo id="N_E_flow.9" depart="28.00" departLane="E4_0" departPos="5.10" departSpeed="0.00" departDelay="28.00" arrival="146.00" arrivalLane="E1_0" arrivalPos="286.40" arrivalSpeed="7.82" duration="118.00" routeLength="576.73" waitingTime="4.00" waitingCount="2" stopTime="0.00" timeLoss="44.81" rerouteNo="0" devices="tripinfo_N_E_flow.9 routing_N_E_flow.9" vType="car" speedFactor="0.86" vaporized=""/>
    <tripinfo id="S_N_flow.2" depart="6.00" departLane="-E3_0" departPos="5.10" departSpeed="0.00" departDelay="6.00" arrival="147.00" arrivalLane="-E4_1" arrivalPos="286.40" arrivalSpeed="6.12" duration="141.00" routeLength="594.90" waitingTime="34.00" waitingCount="1" stopTime="0.00" timeLoss="65.95" rerouteNo="0" devices="tripinfo_S_N_flow.2 routing_S_N_flow.2" vType="car" speedFactor="0.93" vaporized=""/>
    <tripinfo id="N_E_flow.11" depart="32.00" departLane="E4_0" departPos="5.10" departSpeed="0.00" departDelay="32.00" arrival="149.00" arrivalLane="E1_1" arrivalPos="286.40" arrivalSpeed="7.02" duration="117.00" routeLength="576.73" waitingTime="0.00" waitingCount="0" stopTime="0.00" timeLoss="44.53" rerouteNo="0" devices="tripinfo_N_E_flow.11 routing_N_E_flow.11" vType="car" speedFactor="1.03" vaporized=""/>
    <tripinfo id="S_N_flow.17" depart="50.00" departLane="-E3_0" departPos="5.10" departSpeed="0.00" departDelay="50.00" arrival="149.00" arrivalLane="-E4_0" arrivalPos="286.40" arrivalSpeed="7.06" duration="99.00" routeLength="594.90" waitingTime="2.00" waitingCount="1" stopTime="0.00" timeLoss="24.28" rerouteNo="0" devices="tripinfo_S_N_flow.17 routing_S_N_flow.17" vType="car" speedFactor="0.96" vaporized=""/>
    <tripinfo id="N_E_flow.12" depart="36.00" departLane="E4_0" departPos="5.10" departSpeed="0.00" departDelay="36.00" arrival="153.00" arrivalLane="E1_0" arrivalPos="286.40" arrivalSpeed="7.29" duration="117.00" routeLength="576.73" waitingTime="1.00" waitingCount="1" stopTime="0.00" timeLoss="44.52" rerouteNo="0" devices="tripinfo_N_E_flow.12 routing_N_E_flow.12" vType="car" speedFactor="1.05" vaporized=""/>
    <tripinfo id="S_N_flow.3" depart="9.00" departLane="-E3_0" departPos="5.10" departSpeed="0.00" departDelay="9.00" arrival="154.00" arrivalLane="-E4_0" arrivalPos="286.40" arrivalSpeed="7.86" duration="145.00" routeLength="594.90" waitingTime="33.00" waitingCount="2" stopTime="0.00" timeLoss="70.56" rerouteNo="0" devices="tripinfo_S_N_flow.3 routing_S_N_flow.3" vType="car" speedFactor="0.88" vaporized=""/>
    <tripinfo id="N_E_flow.13" depart="39.00" departLane="E4_0" departPos="5.10" departSpeed="0.00" departDelay="39.00" arrival="156.00" arrivalLane="E1_0" arrivalPos="286.40" arrivalSpeed="6.98" duration="117.00" routeLength="576.73" waitingTime="0.00" waitingCount="0" stopTime="0.00" timeLoss="44.81" rerouteNo="0" devices="tripinfo_N_E_flow.13 routing_N_E_flow.13" vType="car" speedFactor="1.12" vaporized=""/>
    <tripinfo id="S_N_flow.21" depart="61.00" departLane="-E3_0" departPos="5.10" departSpeed="0.00" departDelay="61.00" arrival="156.00" arrivalLane="-E4_1" arrivalPos="286.40" arrivalSpeed="5.04" duration="95.00" routeLength="594.90" waitingTime="0.00" waitingCount="0" stopTime="0.00" timeLoss="20.65" rerouteNo="0" devices="tripinfo_S_N_flow.21 routing_S_N_flow.21" vType="car" speedFactor="1.26" vaporized=""/>
    <tripinfo id="N_E_flow.15" depart="42.00" departLane="E4_0" departPos="5.10" departSpeed="0.00" departDelay="42.00" arrival="159.00" arrivalLane="E1_1" arrivalPos="286.40" arrivalSpeed="5.88" duration="117.00" routeLength="576.73" waitingTime="1.00" waitingCount="1" stopTime="0.00" timeLoss="44.40" rerouteNo="0" devices="tripinfo_N_E_flow.15 routing_N_E_flow.15" vType="car" speedFactor="0.93" vaporized=""/>
    <tripinfo id="S_N_flow.4" depart="12.00" departLane="-E3_0" departPos="5.10" departSpeed="0.00" departDelay="12.00" arrival="162.00" arrivalLane="-E4_0" arrivalPos="286.40" arrivalSpeed="7.38" duration="150.00" routeLength="594.90" waitingTime="34.00" waitingCount="2" stopTime="0.00" timeLoss="74.87" rerouteNo="0" devices="tripinfo_S_N_flow.4 routing_S_N_flow.4" vType="car" speedFactor="0.99" vaporized=""/>
    <tripinfo id="N_E_flow.16" depart="46.00" departLane="E4_0" departPos="5.10" departSpeed="0.00" departDelay="46.00" arrival="163.00" arrivalLane="E1_0" arrivalPos="286.40" arrivalSpeed="6.94" duration="117.00" routeLength="576.73" waitingTime="0.00" waitingCount="0" stopTime="0.00" timeLoss="44.14" rerouteNo="0" devices="tripinfo_N_E_flow.16 routing_N_E_flow.16" vType="car" speedFactor="0.88" vaporized=""/>
    <tripinfo id="S_N_flow.5" depart="15.00" departLane="-E3_0" departPos="5.10" departSpeed="0.00" departDelay="15.00" arrival="166.00" arrivalLane="-E4_0" arrivalPos="286.40" arrivalSpeed="7.50" duration="151.00" routeLength="594.90" waitingTime="33.00" waitingCount="2" stopTime="0.00" timeLoss="76.29" rerouteNo="0" devices="tripinfo_S_N_flow.5 routing_S_N_flow.5" vType="car" speedFactor="0.98" vaporized=""/>
    <tripinfo id="N_E_flow.17" depart="47.00" departLane="E4_0" departPos="5.10" departSpeed="0.00" departDelay="47.00" arrival="168.00" arrivalLane="E1_0" arrivalPos="286.40" arrivalSpeed="5.66" duration="121.00" routeLength="576.73" waitingTime="1.00" waitingCount="1" stopTime="0.00" timeLoss="48.35" rerouteNo="0" devices="tripinfo_N_E_flow.17 routing_N_E_flow.17" vType="car" speedFactor="0.94" vaporized=""/>
    <tripinfo id="S_N_flow.6" depart="18.00" departLane="-E3_0" departPos="5.10" departSpeed="0.00" departDelay="18.00" arrival="170.00" arrivalLane="-E4_0" arrivalPos="286.40" arrivalSpeed="7.26" duration="152.00" routeLength="594.90" waitingTime="31.00" waitingCount="2" stopTime="0.00" timeLoss="76.88" rerouteNo="0" devices="tripinfo_S_N_flow.6 routing_S_N_flow.6" vType="car" speedFactor="0.88" vaporized=""/>
    <tripinfo id="S_N_flow.8" depart="23.00" departLane="-E3_0" departPos="5.10" departSpeed="0.00" departDelay="23.00" arrival="172.00" arrivalLane="-E4_1" arrivalPos="286.40" arrivalSpeed="6.70" duration="149.00" routeLength="594.90" waitingTime="32.00" waitingCount="2" stopTime="0.00" timeLoss="74.32" rerouteNo="0" devices="tripinfo_S_N_flow.8 routing_S_N_flow.8" vType="car" speedFactor="0.96" vaporized=""/>
    <tripinfo id="N_E_flow.23" depart="65.00" departLane="E4_0" departPos="5.10" departSpeed="0.00" departDelay="65.00" arrival="184.00" arrivalLane="E1_0" arrivalPos="286.40" arrivalSpeed="4.73" duration="119.00" routeLength="576.73" waitingTime="8.00" waitingCount="1" stopTime="0.00" timeLoss="46.56" rerouteNo="0" devices="tripinfo_N_E_flow.23 routing_N_E_flow.23" vType="car" speedFactor="0.89" vaporized=""/>
